# vtk DataFile Version 1.0
Cube
ASCII

DATASET POLYDATA
POINTS 151 float
3.784305 1.568004 5.971850
11.313820 13.597669 6.127257
11.403810 1.653212 9.195110
3.938374 13.559271 9.085873
5.994969 3.746255 1.533549
6.139136 11.343928 13.629790
9.193110 11.361068 1.674019
9.167101 3.820383 13.579245
1.557270 5.987433 3.784536
13.614323 6.107813 11.298234
1.682460 9.179416 11.431159
13.549007 9.084664 3.862088
1.675054 3.843408 9.135060
13.623126 11.401598 9.202805
1.622560 11.314268 6.024507
13.577055 3.786936 6.045178
3.840887 6.029700 13.559630
11.305280 6.038705 1.605369
11.439857 9.182975 13.633109
3.865314 9.095268 1.655913
6.105337 1.633454 11.281788
6.065246 13.562812 3.803999
9.132320 1.649087 3.855148
9.236633 13.606020 11.443381
11.441567 13.628683 9.212914
3.801516 5.983114 1.605972
3.951405 1.620410 9.058262
3.829453 13.524944 5.994784
11.329559 1.630034 6.102814
9.239977 11.426624 13.667057
1.572163 3.758477 5.994482
9.098696 3.852603 1.575042
6.056478 3.783937 13.539865
6.095940 11.319194 1.650331
13.657532 9.201410 11.434328
6.008273 1.572132 3.760546
1.574080 9.076230 3.854242
13.536012 5.988178 3.811845
1.645400 6.066369 11.345308
13.553303 11.332480 6.081691
13.595559 3.889358 9.133098
1.671473 11.389709 9.160860
11.382544 9.122396 1.621513
3.920924 9.158582 13.590863
11.375953 6.055165 13.544693
9.147220 13.565343 3.904486
9.190520 1.618654 11.402341
6.109095 13.534793 11.338669
3.403952 0.011666 5.814482
3.410814 15.076864 5.814482
10.952776 7.725638 13.395925
11.683944 0.081539 5.912705
4.300040 7.663738 13.336780
11.848099 0.119217 9.382202
4.296547 7.441040 1.886912
3.636466 0.071801 9.251540
10.950791 7.597439 1.811622
5.809209 3.338450 -0.006035
5.847841 3.333929 15.082015
13.347232 10.916034 7.737454
5.908709 11.686646 0.104862
13.391226 4.222467 7.566355
9.385193 11.818455 0.140621
1.811250 4.215570 7.453798
9.336204 3.455041 0.038776
1.865115 10.932672 7.516112
-0.000941 5.801352 3.368709
15.072259 5.801352 3.368709
7.786765 13.346589 10.968710
0.070977 5.882931 11.661856
7.588232 13.369995 4.246532
0.120070 9.373331 11.847288
7.463916 1.817847 4.256188
0.017225 9.270831 3.488206
15.090425 9.270831 3.488206
7.676005 1.838736 10.966598
15.068269 3.441102 9.353233
7.663447 10.960131 1.849342
0.031961 11.836780 9.375714
15.105161 11.836780 9.375714
7.527563 4.198906 1.728034
0.127982 11.748815 5.802110
7.614821 4.133344 13.389286
0.022624 3.356438 5.824893
15.095824 3.356438 5.824893
7.719868 10.976236 13.462011
3.374229 5.816034 0.120252
10.951188 13.437960 7.697320
11.751188 5.829139 0.128852
4.266597 13.339490 7.507663
11.797326 9.342654 0.097771
4.281308 1.807844 7.474922
3.503239 9.369646 0.011467
3.541871 9.365125 15.099517
10.979885 1.830836 7.665936
5.894651 0.144290 11.679056
13.347837 7.517926 4.221787
5.857371 0.021133 3.381383
13.436765 7.680871 10.961016
9.368167 15.042017 3.455013
1.854600 7.635043 11.059993
9.381125 0.092122 11.822694
1.740936 7.508126 4.249549
2.527911 2.506657 5.670391
10.254718 10.237170 13.353829
12.508992 12.673075 5.768916
5.177495 5.015156 13.236444
12.585256 2.677407 9.487366
5.192041 10.126663 2.054992
2.679578 12.726355 9.456435
10.022909 5.125362 1.907884
5.721155 2.495106 2.488170
13.308760 10.218512 10.260930
5.824206 12.584662 12.741707
13.264704 5.007214 5.049367
9.503769 12.545940 2.699403
2.001269 5.208182 10.081835
9.510041 2.569350 12.634129
1.920406 10.043502 5.073206
2.539988 5.680162 2.581414
10.270488 13.327822 10.250670
12.686769 5.746340 12.500600
5.068391 13.258886 5.010440
2.662328 9.527208 12.648765
10.121419 2.007687 5.202510
12.608954 9.398249 2.594239
5.221592 1.979589 9.982556
2.720348 2.506136 9.419319
10.162726 10.115851 1.937456
12.650428 12.659001 9.499436
4.990617 4.920477 1.903508
2.628449 12.541742 5.650776
10.046533 5.045445 13.208381
12.595287 2.561915 5.772537
5.190595 10.117880 13.265413
2.505581 5.654268 12.578002
10.047093 13.268172 5.194665
12.513880 5.684218 2.622454
5.173144 13.174542 9.968071
12.693770 9.485316 12.686183
4.951155 1.877756 4.928813
2.483785 9.393868 2.634977
10.176018 1.917161 10.176739
5.750951 2.587463 12.519008
13.165862 9.993791 5.060381
5.796067 12.596597 2.574172
13.268479 5.179726 10.025255
9.451624 2.662923 2.518497
1.987520 10.080231 10.202992
9.555252 12.671897 12.717114
1.847895 4.963849 4.972719
POINT_DATA 151
SCALARS my_scalars float
LOOKUP_TABLE default
2.1
2.1
2.1
2.1
2.1
2.1
2.1
2.1
2.1
2.1
2.1
2.1
2.1
2.1
2.1
2.1
2.1
2.1
2.1
2.1
2.1
2.1
2.1
2.1
2.1
2.1
2.1
2.1
2.1
2.1
2.1
2.1
2.1
2.1
2.1
2.1
2.1
2.1
2.1
2.1
2.1
2.1
2.1
2.1
2.1
2.1
2.1
2.1
1.52
1.52
1.52
1.52
1.52
1.52
1.52
1.52
1.52
1.52
1.52
1.52
1.52
1.52
1.52
1.52
1.52
1.52
1.52
1.52
1.52
1.52
1.52
1.52
1.52
1.52
1.52
1.52
1.52
1.52
1.52
1.52
1.52
1.52
1.52
1.52
1.52
1.52
1.52
1.52
1.52
1.52
1.52
1.52
1.52
1.52
1.52
1.52
1.52
1.52
1.52
1.52
1.52
1.52
1.52
1.52
1.52
1.52
1.52
1.52
1.52
1.52
1.52
1.52
1.52
1.52
1.52
1.52
1.52
1.52
1.52
1.52
1.52
1.52
1.52
1.52
1.52
1.52
1.52
1.52
1.52
1.52
1.52
1.52
1.52
1.52
1.52
1.52
1.52
1.52
1.52
1.52
1.52
1.52
1.52
1.52
1.52
1.52
1.52
1.52
1.52
1.52
1.52
VECTORS vectors float
0.125 0 0
0.125 0 0
0.125 0 0
0.125 0 0
0.125 0 0
0.125 0 0
0.125 0 0
0.125 0 0
0.125 0 0
0.125 0 0
0.125 0 0
0.125 0 0
0.125 0 0
0.125 0 0
0.125 0 0
0.125 0 0
0.125 0 0
0.125 0 0
0.125 0 0
0.125 0 0
0.125 0 0
0.125 0 0
0.125 0 0
0.125 0 0
0.125 0 0
0.125 0 0
0.125 0 0
0.125 0 0
0.125 0 0
0.125 0 0
0.125 0 0
0.125 0 0
0.125 0 0
0.125 0 0
0.125 0 0
0.125 0 0
0.125 0 0
0.125 0 0
0.125 0 0
0.125 0 0
0.125 0 0
0.125 0 0
0.125 0 0
0.125 0 0
0.125 0 0
0.125 0 0
0.125 0 0
0.125 0 0
0.03125 0 0
0.03125 0 0
0.03125 0 0
0.03125 0 0
0.03125 0 0
0.03125 0 0
0.03125 0 0
0.03125 0 0
0.03125 0 0
0.03125 0 0
0.03125 0 0
0.03125 0 0
0.03125 0 0
0.03125 0 0
0.03125 0 0
0.03125 0 0
0.03125 0 0
0.03125 0 0
0.03125 0 0
0.03125 0 0
0.03125 0 0
0.03125 0 0
0.03125 0 0
0.03125 0 0
0.03125 0 0
0.03125 0 0
0.03125 0 0
0.03125 0 0
0.03125 0 0
0.03125 0 0
0.03125 0 0
0.03125 0 0
0.03125 0 0
0.03125 0 0
0.03125 0 0
0.03125 0 0
0.03125 0 0
0.03125 0 0
0.03125 0 0
0.03125 0 0
0.03125 0 0
0.03125 0 0
0.03125 0 0
0.03125 0 0
0.03125 0 0
0.03125 0 0
0.03125 0 0
0.03125 0 0
0.03125 0 0
0.03125 0 0
0.03125 0 0
0.03125 0 0
0.03125 0 0
0.03125 0 0
0.03125 0 0
0.03125 0 0
0.03125 0 0
0.03125 0 0
0.03125 0 0
0.03125 0 0
0.03125 0 0
0.03125 0 0
0.03125 0 0
0.03125 0 0
0.03125 0 0
0.03125 0 0
0.03125 0 0
0.03125 0 0
0.03125 0 0
0.03125 0 0
0.03125 0 0
0.03125 0 0
0.03125 0 0
0.03125 0 0
0.03125 0 0
0.03125 0 0
0.03125 0 0
0.03125 0 0
0.03125 0 0
0.03125 0 0
0.03125 0 0
0.03125 0 0
0.03125 0 0
0.03125 0 0
0.03125 0 0
0.03125 0 0
0.03125 0 0
0.03125 0 0
0.03125 0 0
0.03125 0 0
0.03125 0 0
0.03125 0 0
0.03125 0 0
0.03125 0 0
0.03125 0 0
0.03125 0 0
0.03125 0 0
0.03125 0 0
0.03125 0 0
0.03125 0 0
0.03125 0 0
0.03125 0 0
0.03125 0 0
